# vtk DataFile Version 1.0
 Lateral Connection Group-based connection lines produced by HydroAlgorithmics' AlgoMesh 2.0.19.
ASCII
 
DATASET POLYDATA
POINTS 38 DOUBLE
4.021444238 25.806488152 5.000000000
1.958246045 15.000000000 5.000000000
4.021444238 25.806488152 5.000000000
14.943025660 26.666177647 5.000000000
4.021444238 25.806488152 5.000000000
9.783442233 14.723968555 5.000000000
1.958246045 15.000000000 5.000000000
9.783442233 14.723968555 5.000000000
1.958246045 15.000000000 5.000000000
3.936801807 4.125779085 5.000000000
14.943025660 26.666177647 5.000000000
9.783442233 14.723968555 5.000000000
14.943025660 26.666177647 5.000000000
26.065704648 25.875319390 5.000000000
14.943025660 26.666177647 5.000000000
20.234273033 15.280491018 5.000000000
9.783442233 14.723968555 5.000000000
3.936801807 4.125779085 5.000000000
9.783442233 14.723968555 5.000000000
20.234273033 15.280491018 5.000000000
9.783442233 14.723968555 5.000000000
15.059952759 3.335008488 5.000000000
3.936801807 4.125779085 5.000000000
15.059952759 3.335008488 5.000000000
26.065704648 25.875319390 5.000000000
20.234273033 15.280491018 5.000000000
26.065704648 25.875319390 5.000000000
28.045243355 15.000000000 5.000000000
20.234273033 15.280491018 5.000000000
15.059952759 3.335008488 5.000000000
20.234273033 15.280491018 5.000000000
28.045243355 15.000000000 5.000000000
20.234273033 15.280491018 5.000000000
25.979538707 4.193527906 5.000000000
15.059952759 3.335008488 5.000000000
25.979538707 4.193527906 5.000000000
28.045243355 15.000000000 5.000000000
25.979538707 4.193527906 5.000000000
LINES 19 57
2 0 1
2 2 3
2 4 5
2 6 7
2 8 9
2 10 11
2 12 13
2 14 15
2 16 17
2 18 19
2 20 21
2 22 23
2 24 25
2 26 27
2 28 29
2 30 31
2 32 33
2 34 35
2 36 37
CELL_DATA 19
SCALARS INTERFACE_AREA  float  1
LOOKUP_TABLE default
51.072211894
59.675592378
28.414371586
150.059690966
46.840090346
75.640148777
56.234030485
83.229000441
33.809521516
131.931786004
83.384204712
56.288954241
33.944307091
46.714767597
75.475796955
150.061858656
28.455338524
59.676395286
51.023064643
SCALARS ANGLDEGX  float  1
LOOKUP_TABLE default
-100.808954091
4.500742422
-62.529280699
-2.020253750
-79.687887301
-113.366564556
-4.067069538
-65.074387479
-118.883943580
3.048207340
-65.141688505
-4.066448279
-118.828544449
-79.683893967
-113.420391892
-2.056600940
-62.606803565
4.495459818
-100.821791047
SCALARS GLOBAL_CELL_INDEX_FROM  int  1
LOOKUP_TABLE default
1
1
1
2
2
3
3
3
4
4
4
5
6
6
7
7
7
8
9
SCALARS GLOBAL_CELL_INDEX_TO  int  1
LOOKUP_TABLE default
2
3
4
4
5
4
6
7
5
7
8
8
7
9
8
9
10
10
10
SCALARS LCG_FROM  int  1
LOOKUP_TABLE default
0
0
0
0
0
0
0
0
0
0
0
0
0
0
0
0
0
0
0
SCALARS LCG_TO  int  1
LOOKUP_TABLE default
0
0
0
0
0
0
0
0
0
0
0
0
0
0
0
0
0
0
0
SCALARS LAYER_FROM  int  1
LOOKUP_TABLE default
1
1
1
1
1
1
1
1
1
1
1
1
1
1
1
1
1
1
1
SCALARS LAYER_TO  int  1
LOOKUP_TABLE default
1
1
1
1
1
1
1
1
1
1
1
1
1
1
1
1
1
1
1
