# vtk DataFile Version 1.0
 Mesh produced by HydroAlgorithmics' AlgoMesh 2.0.19.
ASCII
 
DATASET UNSTRUCTURED_GRID
POINTS 108 DOUBLE
0.000000000 22.500000000 10.000000000
5.107221189 22.500000000 10.000000000
7.500000000 24.032440762 10.000000000
7.500000000 30.000000000 10.000000000
0.000000000 30.000000000 10.000000000
0.000000000 22.500000000 0.000000000
5.107221189 22.500000000 0.000000000
7.500000000 24.032440762 0.000000000
7.500000000 30.000000000 0.000000000
0.000000000 30.000000000 0.000000000
0.000000000 7.500000000 10.000000000
4.684009035 7.500000000 10.000000000
5.107221189 22.500000000 10.000000000
0.000000000 22.500000000 10.000000000
0.000000000 15.000000000 10.000000000
0.000000000 7.500000000 0.000000000
4.684009035 7.500000000 0.000000000
5.107221189 22.500000000 0.000000000
0.000000000 22.500000000 0.000000000
0.000000000 15.000000000 0.000000000
7.500000000 30.000000000 10.000000000
7.500000000 24.032440762 10.000000000
14.658153962 21.588028168 10.000000000
22.500000000 24.376596951 10.000000000
22.500000000 30.000000000 10.000000000
15.000000000 30.000000000 10.000000000
7.500000000 30.000000000 0.000000000
7.500000000 24.032440762 0.000000000
14.658153962 21.588028168 0.000000000
22.500000000 24.376596951 0.000000000
22.500000000 30.000000000 0.000000000
15.000000000 30.000000000 0.000000000
7.500000000 24.032440762 10.000000000
14.658153962 21.588028168 10.000000000
15.359716556 8.413515976 10.000000000
7.500000000 5.628895424 10.000000000
4.684009035 7.500000000 10.000000000
5.107221189 22.500000000 10.000000000
7.500000000 24.032440762 0.000000000
14.658153962 21.588028168 0.000000000
15.359716556 8.413515976 0.000000000
7.500000000 5.628895424 0.000000000
4.684009035 7.500000000 0.000000000
5.107221189 22.500000000 0.000000000
0.000000000 7.500000000 10.000000000
4.684009035 7.500000000 10.000000000
7.500000000 5.628895424 10.000000000
7.500000000 0.000000000 10.000000000
0.000000000 0.000000000 10.000000000
0.000000000 7.500000000 0.000000000
4.684009035 7.500000000 0.000000000
7.500000000 5.628895424 0.000000000
7.500000000 0.000000000 0.000000000
0.000000000 0.000000000 0.000000000
30.000000000 30.000000000 10.000000000
30.000000000 22.500000000 10.000000000
25.328523240 22.500000000 10.000000000
22.500000000 24.376596951 10.000000000
22.500000000 30.000000000 10.000000000
30.000000000 30.000000000 0.000000000
30.000000000 22.500000000 0.000000000
25.328523240 22.500000000 0.000000000
22.500000000 24.376596951 0.000000000
22.500000000 30.000000000 0.000000000
22.500000000 24.376596951 10.000000000
25.328523240 22.500000000 10.000000000
24.897693536 7.500000000 10.000000000
22.500000000 5.967639529 10.000000000
15.359716556 8.413515976 10.000000000
14.658153962 21.588028168 10.000000000
22.500000000 24.376596951 0.000000000
25.328523240 22.500000000 0.000000000
24.897693536 7.500000000 0.000000000
22.500000000 5.967639529 0.000000000
15.359716556 8.413515976 0.000000000
14.658153962 21.588028168 0.000000000
22.500000000 0.000000000 10.000000000
22.500000000 5.967639529 10.000000000
15.359716556 8.413515976 10.000000000
7.500000000 5.628895424 10.000000000
7.500000000 0.000000000 10.000000000
15.000000000 0.000000000 10.000000000
22.500000000 0.000000000 0.000000000
22.500000000 5.967639529 0.000000000
15.359716556 8.413515976 0.000000000
7.500000000 5.628895424 0.000000000
7.500000000 0.000000000 0.000000000
15.000000000 0.000000000 0.000000000
30.000000000 7.500000000 10.000000000
24.897693536 7.500000000 10.000000000
25.328523240 22.500000000 10.000000000
30.000000000 22.500000000 10.000000000
30.000000000 15.000000000 10.000000000
30.000000000 7.500000000 0.000000000
24.897693536 7.500000000 0.000000000
25.328523240 22.500000000 0.000000000
30.000000000 22.500000000 0.000000000
30.000000000 15.000000000 0.000000000
30.000000000 0.000000000 10.000000000
30.000000000 7.500000000 10.000000000
24.897693536 7.500000000 10.000000000
22.500000000 5.967639529 10.000000000
22.500000000 0.000000000 10.000000000
30.000000000 0.000000000 0.000000000
30.000000000 7.500000000 0.000000000
24.897693536 7.500000000 0.000000000
22.500000000 5.967639529 0.000000000
22.500000000 0.000000000 0.000000000
CELLS 10 418
38
 7
  5 0 1 2 3 4
  5 5 6 7 8 9
  4 0 1 6 5
  4 1 2 7 6
  4 2 3 8 7
  4 3 4 9 8
  4 4 0 5 9
38
 7
  5 10 11 12 13 14
  5 15 16 17 18 19
  4 10 11 16 15
  4 11 12 17 16
  4 12 13 18 17
  4 13 14 19 18
  4 14 10 15 19
45
 8
  6 20 21 22 23 24 25
  6 26 27 28 29 30 31
  4 20 21 27 26
  4 21 22 28 27
  4 22 23 29 28
  4 23 24 30 29
  4 24 25 31 30
  4 25 20 26 31
45
 8
  6 32 33 34 35 36 37
  6 38 39 40 41 42 43
  4 32 33 39 38
  4 33 34 40 39
  4 34 35 41 40
  4 35 36 42 41
  4 36 37 43 42
  4 37 32 38 43
38
 7
  5 44 45 46 47 48
  5 49 50 51 52 53
  4 44 45 50 49
  4 45 46 51 50
  4 46 47 52 51
  4 47 48 53 52
  4 48 44 49 53
38
 7
  5 54 55 56 57 58
  5 59 60 61 62 63
  4 54 55 60 59
  4 55 56 61 60
  4 56 57 62 61
  4 57 58 63 62
  4 58 54 59 63
45
 8
  6 64 65 66 67 68 69
  6 70 71 72 73 74 75
  4 64 65 71 70
  4 65 66 72 71
  4 66 67 73 72
  4 67 68 74 73
  4 68 69 75 74
  4 69 64 70 75
45
 8
  6 76 77 78 79 80 81
  6 82 83 84 85 86 87
  4 76 77 83 82
  4 77 78 84 83
  4 78 79 85 84
  4 79 80 86 85
  4 80 81 87 86
  4 81 76 82 87
38
 7
  5 88 89 90 91 92
  5 93 94 95 96 97
  4 88 89 94 93
  4 89 90 95 94
  4 90 91 96 95
  4 91 92 97 96
  4 92 88 93 97
38
 7
  5 98 99 100 101 102
  5 103 104 105 106 107
  4 98 99 104 103
  4 99 100 105 104
  4 100 101 106 105
  4 101 102 107 106
  4 102 98 103 107
CELL_TYPES 10
42
42
42
42
42
42
42
42
42
42
CELL_DATA 10
SCALARS LAYER  int  1
LOOKUP_TABLE default
1
1
1
1
1
1
1
1
1
1
SCALARS 2D_MESH_CELL_INDEX  int  1
LOOKUP_TABLE default
1
2
3
4
5
6
7
8
9
10
SCALARS AREA  float  1
LOOKUP_TABLE default
54.416604
73.434227
106.497073
162.152140
53.615493
53.596001
162.044703
106.527450
73.303374
54.412935
SCALARS CELL_CENTRE_X  float  1
LOOKUP_TABLE default
4.021444
1.958246
14.943026
9.783442
3.936802
26.065705
20.234273
15.059953
28.045243
25.979539
SCALARS CELL_CENTRE_Y  float  1
LOOKUP_TABLE default
25.806488
15.000000
26.666178
14.723969
4.125779
25.875319
15.280491
3.335008
15.000000
4.193528
SCALARS ELEVATION_TOP  float  1
LOOKUP_TABLE default
10.000000000
10.000000000
10.000000000
10.000000000
10.000000000
10.000000000
10.000000000
10.000000000
10.000000000
10.000000000
SCALARS ELEVATION_BOTTOM  float  1
LOOKUP_TABLE default
0.000000000
0.000000000
0.000000000
0.000000000
0.000000000
0.000000000
0.000000000
0.000000000
0.000000000
0.000000000
SCALARS KX  float  1
LOOKUP_TABLE default
     1
     1
     1
     1
     1
     1
     1
     1
     1
     1
SCALARS KZ  float  1
LOOKUP_TABLE default
   0.1
   0.1
   0.1
   0.1
   0.1
   0.1
   0.1
   0.1
   0.1
   0.1
SCALARS INITIAL_HEAD  float  1
LOOKUP_TABLE default
10.000000000
10.000000000
10.000000000
10.000000000
10.000000000
10.000000000
10.000000000
10.000000000
10.000000000
10.000000000
